 &FCI NORB=  4,NELEC=4,MS2=0,
  ORBSYM=1,1,1,1,
  ISYM=1,
 &END
 0.2840843372397457    1    1    1    1
 0.0002854816936369414    2    1    1    1
 0.04417807442382433    2    1    2    1
 0.2622091838554816    2    2    1    1
 0.0006468616587143983    2    2    2    1
 0.2730936605028639    2    2    2    2
 -6.264064000199201e-05    3    1    1    1
 0.002101357535092042    3    1    2    1
 0.0002255741757854556    3    1    2    2
 0.03573411911251266    3    1    3    1
 0.0001350220017667965    3    2    1    1
 0.0004833657197940787    3    2    2    1
 6.60155191565777e-05    3    2    2    2
 -0.0003287992979621698    3    2    3    1
 0.008161769399712743    3    2    3    2
 0.2615787261186168    3    3    1    1
 -4.738450152304652e-05    3    3    2    1
 0.2582635280856485    3    3    2    2
 0.0006070623455779637    3    3    3    1
 -0.002443459518692521    3    3    3    2
 0.2799043482114074    3    3    3    3
 0.004948020321549084    4    1    1    1
 -0.0001423669308772119    4    1    2    1
 0.01355099400828998    4    1    2    2
 -9.862707170814855e-05    4    1    3    1
 0.00690828349990277    4    1    3    2
 -0.005561548693420539    4    1    3    3
 0.02473119582336451    4    1    4    1
 0.0002187162198814015    4    2    1    1
 0.0222393679678707    4    2    2    1
 0.0007535913042595605    4    2    2    2
 0.01456013639219515    4    2    3    1
 4.134481095727774e-05    4    2    3    2
 0.0007998106625613357    4    2    3    3
 -0.000631142382644568    4    2    4    1
 0.0274480584179987    4    2    4    2
 0.0002458927780511462    4    3    1    1
 0.01592029588904504    4    3    2    1
 0.0001645551990137675    4    3    2    2
 -0.02154892525410992    4    3    3    1
 0.0006066874646118994    4    3    3    2
 -0.0005508824155951026    4    3    3    3
 7.170799160342295e-05    4    3    4    1
 -0.002178587382308951    4    3    4    2
 0.03709458071687864    4    3    4    3
 0.2682959348286622    4    4    1    1
 -0.0003600848098100874    4    4    2    1
 0.2731565325485292    4    4    2    2
 0.0002213930846584909    4    4    3    1
 -0.0009824570080940911    4    4    3    2
 0.2773340631231709    4    4    3    3
 0.004390876956748526    4    4    4    1
 0.0004732853856294346    4    4    4    2
 -0.000517460610178891    4    4    4    3
 0.3038445820400585    4    4    4    4
 -12.52718671684592    1    1  0  0
 0.001483911550546467    2    1  0  0
 -12.70422837256603    2    2  0  0
 0.006259774312687916    3    1  0  0
 0.04567009757527558    3    2  0  0
 -12.83732437964672    3    3  0  0
 -0.1188168544704107    4    1  0  0
 -0.008552528363446082    4    2  0  0
 -0.005989008051549467    4    3  0  0
 -13.28315426027296    4    4  0  0
